<?xml version="1.0" encoding="UTF-8"?>

<!-- generated on 21/10/2015 16:00:18 by SUMO gui Version 0.24.0
<?xml version="1.0" encoding="UTF-8"?>

<configuration xmlns:xsi="http://www.w3.org/2001/XMLSchema-instance" xsi:noNamespaceSchemaLocation="http://sumo.dlr.de/xsd/sumo-gui.exeConfiguration.xsd">

    <input>
        <net-file value="C:\Users\diogo\Desktop\AIAD\sumo-0.24.0\docs\examples\sumo\busses\net.net.xml"/>
        <additional-files value="C:\Users\diogo\Desktop\AIAD\sumo-0.24.0\docs\examples\sumo\busses\input_additional.add.xml"/>
    </input>

    <output>
        <vehroute-output value="C:\Users\diogo\Desktop\AIAD\sumo-0.24.0\docs\examples\sumo\busses\vehroutes.xml"/>
        <save-state.prefix value="C:\Users\diogo\Desktop\AIAD\sumo-0.24.0\docs\examples\sumo\busses\state"/>
    </output>

    <report>
        <xml-validation value="never"/>
        <no-duration-log value="true"/>
        <no-step-log value="true"/>
    </report>

    <emissions>
        <phemlight-path value="C:\Users\diogo\Desktop\AIAD\sumo-0.24.0\docs\examples\sumo\busses\./PHEMlight/"/>
    </emissions>

</configuration>
-->

<routes xmlns:xsi="http://www.w3.org/2001/XMLSchema-instance" xsi:noNamespaceSchemaLocation="http://sumo.dlr.de/xsd/routes_file.xsd">
    <vehicle id="0" type="BUS" depart="0.00" arrival="296.00">
        <route edges="2/0to2/1 2/1to1/1 1/1to1/2 1/2to0/2 0/2to0/1 0/1to0/0 0/0to1/0 1/0to2/0 2/0to2/1"/>
    </vehicle>

    <vehicle id="1" type="BUS" depart="3.00" arrival="376.00">
        <route edges="2/0to2/1 2/1to1/1 1/1to1/2 1/2to0/2 0/2to0/1 0/1to0/0 0/0to1/0 1/0to2/0 2/0to2/1"/>
    </vehicle>

    <vehicle id="2" type="BUS" depart="6.00" arrival="402.00">
        <route edges="2/0to2/1 2/1to1/1 1/1to1/2 1/2to0/2 0/2to0/1 0/1to0/0 0/0to1/0 1/0to2/0 2/0to2/1"/>
    </vehicle>

</routes>
