<?xml version="1.0" encoding="UTF-8"?>

<!-- generated on 21/10/2015 16:00:34 by SUMO gui Version 0.24.0
<?xml version="1.0" encoding="UTF-8"?>

<configuration xmlns:xsi="http://www.w3.org/2001/XMLSchema-instance" xsi:noNamespaceSchemaLocation="http://sumo.dlr.de/xsd/sumo-gui.exeConfiguration.xsd">

    <input>
        <net-file value="C:\Users\diogo\Desktop\AIAD\sumo-0.24.0\docs\examples\sumo\vehicle_stops\net.net.xml"/>
        <route-files value="C:\Users\diogo\Desktop\AIAD\sumo-0.24.0\docs\examples\sumo\vehicle_stops\input_routes.rou.xml"/>
    </input>

    <output>
        <vehroute-output value="C:\Users\diogo\Desktop\AIAD\sumo-0.24.0\docs\examples\sumo\vehicle_stops\vehroutes.xml"/>
        <save-state.prefix value="C:\Users\diogo\Desktop\AIAD\sumo-0.24.0\docs\examples\sumo\vehicle_stops\state"/>
    </output>

    <report>
        <xml-validation value="never"/>
        <no-duration-log value="true"/>
        <no-step-log value="true"/>
    </report>

    <emissions>
        <phemlight-path value="C:\Users\diogo\Desktop\AIAD\sumo-0.24.0\docs\examples\sumo\vehicle_stops\./PHEMlight/"/>
    </emissions>

</configuration>
-->

<routes xmlns:xsi="http://www.w3.org/2001/XMLSchema-instance" xsi:noNamespaceSchemaLocation="http://sumo.dlr.de/xsd/routes_file.xsd">
</routes>
